Nr.	Time[fs]	Kin.[a.u.]	Temp[K]	Pot.[a.u.]	Cons Qty[a.u.]	UsedTime[s]
0	0	0.563182878	300.15	-8848.549505	-8847.985847	0
1	1	0.535123495	285.1956679	-8848.522722	-8847.985702	547.9480116
2	2	0.471622088	251.3524032	-8848.459194	-8847.984486	39.77577238
3	3	0.412260564	219.7155014	-8848.400508	-8847.984402	44.54320227
4	4	0.38674685	206.1178908	-8848.377476	-8847.986619	40.29669042
5	5	0.394699145	210.3560905	-8848.388598	-8847.990018	41.09611859
6	6	0.413025796	220.123334	-8848.408491	-8847.99231	40.34366871
7	7	0.416527597	221.9896294	-8848.410557	-8847.992078	45.175161
8	8	0.393729353	209.8392369	-8848.383616	-8847.989553	44.92277554
9	9	0.353228008	188.253924	-8848.337763	-8847.986154	49.86865138
10	10	0.320015315	170.5531198	-8848.299958	-8847.983822	49.70312127
11	11	0.318101835	169.5333246	-8848.295606	-8847.984045	46.31835763
12	12	0.348241695	185.5964535	-8848.325437	-8847.986993	46.53609967
13	13	0.384911629	205.1398044	-8848.361401	-8847.990202	51.32747889
14	14	0.39712914	211.6511632	-8848.369205	-8847.990074	50.22071331
15	15	0.373863601	199.2517246	-8848.339806	-8847.988103	64.40352355
16	16	0.332002199	176.9415656	-8848.292719	-8847.986575	54.65249102
17	17	0.299549213	159.6456492	-8848.256538	-8847.98607	54.67100546
18	18	0.292132061	155.6926561	-8848.246762	-8847.986676	60.195688
19	19	0.305400522	162.7641221	-8848.257983	-8847.987572	64.04237276
20	20	0.321905306	171.5603963	-8848.271626	-8847.987744	59.42351319
21	21	0.327272306	174.420755	-8848.273166	-8847.987008	64.58589681
22	22	0.321083914	171.1226327	-8848.262896	-8847.986009	72.72879357
23	23	0.313998643	167.3465164	-8848.252639	-8847.98591	59.41534329
24	24	0.317569986	169.2498743	-8848.252476	-8847.985338	63.0937188
25	25	0.335475167	178.7924942	-8848.26632	-8847.984672	63.14329375
26	26	0.360294768	192.0201747	-8848.289693	-8847.986955	69.38091142
27	27	0.37777663	201.3371855	-8848.301501	-8847.985308	69.17325523
28	28	0.377403996	201.138589	-8848.293992	-8847.982335	72.6486591
29	29	0.360837921	192.3096495	-8848.271887	-8847.98092	68.94340717
30	30	0.339275355	180.8178157	-8848.246435	-8847.981034	68.0733582
31	31	0.323068082	172.1801012	-8848.226573	-8847.981296	63.61815558
32	32	0.314444814	167.5843047	-8848.215112	-8847.982373	67.56310264
33	33	0.310440868	165.4503895	-8848.208235	-8847.983475	63.75619894
34	34	0.307272762	163.7619382	-8848.199131	-8847.981587	54.17520044
35	35	0.303984736	162.0095746	-8848.191785	-8847.981633	64.36407093
36	36	0.303182281	161.5819037	-8848.18937	-8847.984175	63.52317218
37	37	0.307594112	163.9332022	-8848.188838	-8847.983473	63.32937444
38	38	0.318335576	169.6578976	-8848.19308	-8847.981356	63.65189682
39	39	0.333879705	177.9421878	-8848.206966	-8847.984272	68.14857786
40	40	0.349965517	186.5151697	-8848.221987	-8847.98798	68.59974834
41	41	0.361757895	192.7999526	-8848.225596	-8847.984714	64.03767912
42	42	0.366115832	195.1225282	-8848.221119	-8847.980852	67.31784152
43	43	0.363175326	193.5553768	-8848.215212	-8847.982827	68.40191528
44	44	0.355114882	189.2595389	-8848.203279	-8847.98381	82.0494848
45	45	0.344458797	183.5803468	-8848.183751	-8847.979692	75.22798369
46	46	0.334463287	178.2532096	-8848.170906	-8847.981511	78.71648107
47	47	0.32816676	174.8974569	-8848.165974	-8847.987506	95.24396519
48	48	0.326186864	173.8422652	-8848.157575	-8847.985738	70.37696118
49	49	0.327675467	174.6356209	-8848.155563	-8847.986959	75.42546589
50	50	0.332451184	177.1808534	-8848.159084	-8847.990527	74.83875481
51	51	0.340543037	181.4934304	-8848.161305	-8847.989609	69.58355101
52	52	0.3510145	187.0742281	-8848.165486	-8847.988419	83.66248793
53	53	0.362609356	193.2537415	-8848.169741	-8847.986329	83.88291224
54	54	0.374490195	199.5856699	-8848.178341	-8847.988436	83.43796105
55	55	0.385621122	205.5179311	-8848.185348	-8847.989814	78.68633989
56	56	0.39387256	209.9155596	-8848.182937	-8847.984729	79.02254326
57	57	0.395546823	210.8078631	-8848.182149	-8847.987853	69.05637722
58	58	0.387569441	206.5562934	-8848.171067	-8847.990246	73.97808509
59	59	0.373074485	198.831163	-8848.149776	-8847.988784	73.825947
60	60	0.361143657	192.4725928	-8848.134105	-8847.990232	83.72031325
61	61	0.358263592	190.9376532	-8848.126279	-8847.990435	91.6115924
62	62	0.363095742	193.5129622	-8848.127804	-8847.992356	96.73339381
63	63	0.371571108	198.0299336	-8848.130575	-8847.992023	134.0853664
64	64	0.381557337	203.3521245	-8848.13369	-8847.990675	68.51558785
65	65	0.39239711	209.1292138	-8848.139552	-8847.991362	68.64905969
66	66	0.404374653	215.5126811	-8848.145456	-8847.991082	60.39645642
67	67	0.417638772	222.5818332	-8848.151393	-8847.98967	64.15694401
68	68	0.431262343	229.8425564	-8848.159431	-8847.990106	62.38933824
69	69	0.443613993	236.425405	-8848.167375	-8847.991799	49.05974684
70	70	0.454113937	242.0213816	-8848.172945	-8847.993009	58.5727037
71	71	0.459789673	245.0462818	-8848.172129	-8847.992643	49.69893935
72	72	0.454653039	242.3086974	-8848.159337	-8847.991007	63.19476113
73	73	0.440400513	234.7127711	-8848.136393	-8847.98814	54.36300002
74	74	0.426643216	227.3807784	-8848.116511	-8847.987648	67.56858785
75	75	0.422122269	224.9713264	-8848.108949	-8847.990158	63.13693946
76	76	0.426924931	227.5309195	-8848.107809	-8847.98982	63.85817337
77	77	0.437198408	233.0061998	-8848.10959	-8847.987062	59.571045
78	78	0.448764414	239.1703375	-8848.115816	-8847.987602	64.39869825
79	79	0.459549242	244.9181436	-8848.122856	-8847.989848	53.5898302
80	80	0.468419928	249.645802	-8848.124521	-8847.988696	67.82512373
81	81	0.47645602	253.9286615	-8848.124481	-8847.986699	53.84049258
82	82	0.484098923	258.0019698	-8848.128699	-8847.989357	62.88541466
83	83	0.491912334	262.1661506	-8848.130393	-8847.989309	62.69542875
84	84	0.500732284	266.866769	-8848.130464	-8847.986618	63.28149249
85	85	0.50774091	270.6020372	-8848.132905	-8847.988075	57.80747117
86	86	0.505992621	269.6702816	-8848.127663	-8847.990511	58.47379535
87	87	0.491716283	262.0616644	-8848.104139	-8847.986999	58.21398946
88	88	0.470725707	250.8746741	-8848.074115	-8847.983466	64.34196521
89	89	0.454713893	242.3411297	-8848.055559	-8847.986248	64.78093674
90	90	0.449777883	239.7104685	-8848.044616	-8847.985534	64.89874275
91	91	0.454544485	242.2508435	-8848.041942	-8847.983478	63.89460592
92	92	0.465986775	248.3490463	-8848.047485	-8847.98313	67.61585251
93	93	0.480285459	255.9695726	-8848.056711	-8847.983786	68.74653352
94	94	0.491836419	262.1256911	-8848.066022	-8847.987405	68.97449143
95	95	0.496146161	264.4225811	-8848.064234	-8847.987197	59.26195387
96	96	0.49297858	262.7344094	-8848.053023	-8847.984978	72.95997873
97	97	0.489983694	261.1382758	-8848.044427	-8847.985109	67.85688679
98	98	0.495469852	264.06214	-8848.044112	-8847.985016	67.27701133
99	99	0.510792039	272.2281459	-8848.053154	-8847.984511	63.206417
100	100	0.525806116	280.2299428	-8848.063233	-8847.985427	63.98928018
101	101	0.527411409	281.0854883	-8848.058306	-8847.984705	59.33875365
102	102	0.51124853	272.4714341	-8848.036357	-8847.984529	79.11750376
103	103	0.489314876	260.7818272	-8848.008927	-8847.984387	72.49191612
104	104	0.478902384	255.2324584	-8847.991417	-8847.982497	77.62784124
105	105	0.486747152	259.4133512	-8847.99488	-8847.983369	78.50910196
106	106	0.507630718	270.5433099	-8848.011805	-8847.984852	69.3296203
107	107	0.531418392	283.2210223	-8848.029393	-8847.984297	87.8207467
108	108	0.546793517	291.415241	-8848.03728	-8847.982542	81.22067749
109	109	0.546543633	291.2820646	-8848.033082	-8847.984237	90.98185961
110	110	0.535677027	285.4906743	-8848.017681	-8847.985135	105.9308671
111	111	0.529139656	282.0065631	-8848.005322	-8847.984559	170.2564238
112	112	0.538428849	286.9572661	-8848.008624	-8847.983761	178.7245595
113	113	0.559941125	298.4222979	-8848.025936	-8847.984802	171.3695609
114	114	0.57743686	307.7467022	-8848.039723	-8847.986354	77.18497276
115	115	0.574447131	306.1533175	-8848.032511	-8847.987245	126.0544468
116	116	0.549149451	292.6708429	-8848.002053	-8847.98689	94.6019269
117	117	0.518809145	276.5008861	-8847.964452	-8847.984126	97.38285065
118	118	0.505629001	269.4764892	-8847.945063	-8847.98227	93.0367759
119	119	0.51845253	276.3108273	-8847.95203	-8847.98085	91.27441285
120	120	0.547106158	291.581864	-8847.980526	-8847.985348	105.6888436
121	121	0.573209109	305.4935097	-8848.003678	-8847.987225	84.1165378
122	122	0.583758317	311.1157418	-8848.007637	-8847.985457	92.55306011
123	123	0.577096967	307.5655556	-8847.996381	-8847.985502	100.8299159
124	124	0.563932047	300.5492717	-8847.976	-8847.982684	328.7460971
125	125	0.562810347	299.9514586	-8847.971252	-8847.983296	182.7671061
126	126	0.582726294	310.565722	-8847.988077	-8847.984413	101.7288231
127	127	0.609893116	325.044361	-8848.014429	-8847.987806	171.2294895
128	128	0.62245083	331.7370324	-8848.022003	-8847.986894	209.5759066
129	129	0.611416242	325.8561157	-8848.004697	-8847.984387	78.47153433
130	130	0.585217706	311.8935278	-8847.975867	-8847.985158	88.09634344
131	131	0.56272426	299.9055783	-8847.949951	-8847.984866	68.90163399
132	132	0.55912912	297.9895377	-8847.943596	-8847.985125	79.35152365
133	133	0.573863463	305.8422497	-8847.955735	-8847.985557	127.3356921
134	134	0.593694291	316.411149	-8847.972045	-8847.985078	198.2934118
135	135	0.607197813	323.6078912	-8847.984473	-8847.986976	155.4707447
136	136	0.611339876	325.8154161	-8847.983856	-8847.985024	152.6154481
137	137	0.6093329	324.7457923	-8847.980303	-8847.986065	83.89181758
138	138	0.607140071	323.5771176	-8847.976231	-8847.986547	113.4383318
139	139	0.610736225	325.4936988	-8847.97669	-8847.985569	92.48342066
140	140	0.622194757	331.6005576	-8847.986895	-8847.986279	135.3832729
141	141	0.633890403	337.833787	-8847.997791	-8847.987208	145.1162529
142	142	0.635622841	338.7570949	-8847.995447	-8847.984561	127.8355387
143	143	0.624817013	332.9980969	-8847.98473	-8847.985748	103.3063532
144	144	0.60993067	325.0643759	-8847.96873	-8847.985441	205.9473782
145	145	0.602096301	320.8890254	-8847.960393	-8847.985523	101.4250884
146	146	0.604754858	322.3059112	-8847.960799	-8847.983678	92.33452247
147	147	0.613053576	326.7287378	-8847.969152	-8847.98396	91.58992797
148	148	0.62007838	330.4726279	-8847.978899	-8847.986692	68.56595248
149	149	0.622292159	331.6524682	-8847.980424	-8847.985762	67.91740092
150	150	0.619920536	330.3885045	-8847.977561	-8847.984769	58.72645466
151	151	0.617024972	328.8453049	-8847.975426	-8847.984775	63.51939456
152	152	0.617727431	329.219683	-8847.976181	-8847.983831	73.46931641
153	153	0.621572898	331.2691357	-8847.980859	-8847.983418	62.86036483
154	154	0.626022748	333.6406969	-8847.988886	-8847.985475	86.38186346
155	155	0.627941642	334.6633769	-8847.992504	-8847.985365	178.6332955
156	156	0.625205689	333.2052428	-8847.98725	-8847.98075	110.5829702
157	157	0.619715274	330.2791095	-8847.986853	-8847.983486	130.32349
158	158	0.615537669	328.0526426	-8847.986945	-8847.98517	125.2166482
159	159	0.613562075	326.9997437	-8847.986819	-8847.984224	72.62075917
160	160	0.6128699	326.6308471	-8847.989637	-8847.984736	67.24951717
161	161	0.612166716	326.2560833	-8847.991578	-8847.984185	63.09524878
162	162	0.610630834	325.4375301	-8847.992516	-8847.983281	105.5721281
163	163	0.607046337	323.5271615	-8847.99389	-8847.9847	87.52301849
164	164	0.59957926	319.5475608	-8847.991248	-8847.985869	62.95677239
165	165	0.587427452	313.0712185	-8847.980249	-8847.983315	76.91795712
166	166	0.575437554	306.6811665	-8847.970326	-8847.981697	81.60468498
167	167	0.570314655	303.950902	-8847.970847	-8847.983707	69.06369515
168	168	0.572532872	305.1331071	-8847.978303	-8847.985341	68.45623808
169	169	0.576276464	307.1282656	-8847.98517	-8847.984854	76.95081994
170	170	0.57633013	307.1568673	-8847.989017	-8847.985026	68.46720939
171	171	0.570185508	303.8820724	-8847.985734	-8847.984288	63.92103924
172	172	0.558009892	297.3930419	-8847.976654	-8847.983868	63.42252069
173	173	0.545110443	290.5182415	-8847.968248	-8847.984995	67.91745766
174	174	0.539651559	287.6089129	-8847.965924	-8847.984933	149.6126118
175	175	0.545729937	290.8484031	-8847.975634	-8847.985494	86.66020918
176	176	0.558885339	297.8596139	-8847.993956	-8847.987641	178.1161271
177	177	0.567964537	302.6983993	-8848.003762	-8847.985341	180.2878265
178	178	0.565626197	301.4521742	-8848.007344	-8847.988237	144.2383202
179	179	0.554487987	295.5160319	-8847.997176	-8847.986244	79.32821124
180	180	0.544072312	289.9649665	-8847.988349	-8847.98499	97.06987133
181	181	0.542382062	289.0641427	-8847.990204	-8847.985822	111.0716024
182	182	0.551095893	293.7082053	-8847.999231	-8847.983504	199.1570557
183	183	0.562745959	299.9171427	-8848.016938	-8847.986951	144.7588597
184	184	0.565758582	301.5227293	-8848.023843	-8847.988225	184.2261013
185	185	0.555168681	295.8788097	-8848.017472	-8847.98986	355.3287688
186	186	0.536588518	285.9764561	-8847.997243	-8847.985747	87.59505311
187	187	0.520098875	277.1882515	-8847.981221	-8847.983945	136.2848253
188	188	0.513264308	273.545749	-8847.977477	-8847.984985	186.5462389
189	189	0.517738837	275.9304622	-8847.984079	-8847.985257	73.22602854
190	190	0.526706946	280.7100428	-8847.996445	-8847.986951	136.0408324
191	191	0.530092381	282.5143205	-8848.003664	-8847.989206	125.6408772
192	192	0.526139322	280.4075259	-8847.99812	-8847.98617	100.2135342
193	193	0.52141698	277.8907398	-8847.992775	-8847.984255	81.58446106
194	194	0.51969835	276.9747908	-8847.994121	-8847.986192	68.04588926
195	195	0.520330166	277.3115188	-8847.99676	-8847.987232	58.79540481
196	196	0.523774157	279.1470044	-8847.998074	-8847.984291	72.83052643
197	197	0.528731519	281.7890452	-8848.006787	-8847.987377	178.6575486
198	198	0.53018659	282.5645298	-8848.007446	-8847.986037	77.66639243
199	199	0.527593077	281.1823091	-8848.003865	-8847.984633	86.11746692
200	200	0.523779685	279.1499504	-8848.001087	-8847.985388	81.53173138
201	201	0.520230726	277.2585222	-8847.997565	-8847.985284	77.1159829
202	202	0.518546248	276.3607744	-8847.995607	-8847.985039	105.0073635
203	203	0.520875321	277.6020607	-8847.998691	-8847.985988	77.07236488
204	204	0.525862446	280.2599644	-8848.002715	-8847.985379	82.25320013
205	205	0.530592468	282.7808437	-8848.007292	-8847.985727	110.635753
206	206	0.536071041	285.7006652	-8848.014202	-8847.987789	87.92612433
207	207	0.543742194	289.7890295	-8848.020516	-8847.987179	77.45799099
208	208	0.549465673	292.8393746	-8848.024624	-8847.986397	64.61405431
209	209	0.548345481	292.2423651	-8848.022082	-8847.985872	63.12052321
210	210	0.54267661	289.2211229	-8848.014009	-8847.984422	87.26237775
211	211	0.539234187	287.3864736	-8848.010013	-8847.984896	68.28018046
212	212	0.541588028	288.6409603	-8848.012144	-8847.985791	95.71589664
213	213	0.546066526	291.027789	-8848.014357	-8847.984736	86.76101905
214	214	0.547086707	291.5714977	-8848.016847	-8847.987494	91.37205798
215	215	0.542336124	289.03966	-8848.011044	-8847.987791	91.71993585
216	216	0.535277217	285.2775947	-8848.000221	-8847.985445	72.87453904
217	217	0.532037856	283.5511671	-8847.994819	-8847.984793	82.08901258
218	218	0.53576141	285.5356467	-8847.999	-8847.986878	93.04180291
219	219	0.543645031	289.7372459	-8848.004187	-8847.985929	77.09477025
220	220	0.551610076	293.9822403	-8848.011736	-8847.987361	91.18656582
221	221	0.557209852	296.9666581	-8848.014086	-8847.986027	110.5218197
222	222	0.558862474	297.8474277	-8848.015623	-8847.98786	119.0552051
223	223	0.557246955	296.9864322	-8848.011278	-8847.987094	99.82881405
224	224	0.556935058	296.8202055	-8848.007046	-8847.985152	82.57243703
225	225	0.561462932	299.2333495	-8848.009837	-8847.985418	68.08931561
226	226	0.568286338	302.8699041	-8848.015396	-8847.986176	78.48123198
227	227	0.572188862	304.949766	-8848.017992	-8847.986886	83.0259541
228	228	0.571190903	304.4179011	-8848.013816	-8847.985688	82.00236737
229	229	0.567704936	302.5600445	-8848.00911	-8847.986403	73.52724707
230	230	0.565270197	301.2624431	-8848.006789	-8847.988418	82.76587005
231	231	0.567148952	302.2637309	-8848.004914	-8847.986548	77.20321437
232	232	0.575035192	306.4667262	-8848.009871	-8847.985495	89.96122401
233	233	0.586889371	312.7844463	-8848.021572	-8847.987195	90.44856233
234	234	0.596171397	317.7313298	-8848.030896	-8847.989019	176.1505054
235	235	0.595885948	317.5791989	-8848.027668	-8847.987733	168.809447
236	236	0.588402273	313.5907522	-8848.019358	-8847.988417	153.2898727
237	237	0.585137249	311.8506478	-8848.012139	-8847.985849	77.81521149
238	238	0.590897646	314.9206683	-8848.014696	-8847.983937	72.04699151
239	239	0.59660612	317.9630169	-8848.023531	-8847.98825	68.17251541
240	240	0.594251017	316.7078574	-8848.020426	-8847.988552	63.51812267
241	241	0.586003744	312.312449	-8848.002432	-8847.979721	67.95111281
242	242	0.577975204	308.0336146	-8847.994235	-8847.980362	69.24236428
243	243	0.571895609	304.7934762	-8847.993595	-8847.986541	73.36025675
244	244	0.566799092	302.0772723	-8847.988518	-8847.987257	72.93782845
245	245	0.56273105	299.909197	-8847.979602	-8847.983087	87.60408929
246	246	0.562820573	299.9569084	-8847.979314	-8847.983387	90.11856436
247	247	0.568946214	303.2215872	-8847.988741	-8847.98737	91.21207251
248	248	0.576158622	307.0654613	-8847.995934	-8847.988019	86.59776234
249	249	0.577737927	307.9071567	-8847.997015	-8847.988145	86.96459039
250	250	0.574829498	306.357101	-8847.991738	-8847.986344	93.32779486
251	251	0.572753097	305.2504769	-8847.989439	-8847.986639	89.46071752
252	252	0.572895807	305.3265348	-8847.989826	-8847.987363	94.80293353
253	253	0.573188944	305.482763	-8847.98948	-8847.987164	68.16181194
254	254	0.572732513	305.2395063	-8847.988767	-8847.987308	86.92299535
255	255	0.571792684	304.7386218	-8847.988655	-8847.988499	70.08434502
256	256	0.571248542	304.4486199	-8847.986562	-8847.987279	68.33422603
257	257	0.570246476	303.9145657	-8847.985007	-8847.987022	72.91161231
258	258	0.565702636	301.4929126	-8847.981403	-8847.988231	77.6520785
259	259	0.55833351	297.5655148	-8847.972174	-8847.986629	72.29311246
260	260	0.554551457	295.5498586	-8847.967555	-8847.986067	72.31586061
261	261	0.557885463	297.3267268	-8847.970555	-8847.986039	86.30392732
262	262	0.563631935	300.3893262	-8847.975859	-8847.985927	96.36797674
263	263	0.565431563	301.3484432	-8847.980402	-8847.989004	86.28841912
264	264	0.562290758	299.6745418	-8847.97679	-8847.988862	82.35499885
265	265	0.558167906	297.4772555	-8847.971612	-8847.988139	90.57114752
266	266	0.557311044	297.0205884	-8847.971742	-8847.989476	162.4345518
267	267	0.560439632	298.687979	-8847.97466	-8847.989639	102.5440492
268	268	0.565166226	301.2070312	-8847.975303	-8847.985944	98.91432574
269	269	0.567916725	302.672918	-8847.980381	-8847.988657	197.7640705
270	270	0.567202517	302.2922789	-8847.980903	-8847.990264	112.7116137
271	271	0.564385916	300.7911627	-8847.976265	-8847.988798	206.8580685
272	272	0.561837314	299.4328774	-8847.972864	-8847.988296	194.0228799
273	273	0.561443697	299.2230982	-8847.97343	-8847.98961	153.5874555
274	274	0.564862794	301.0453163	-8847.974502	-8847.987625	101.8881616
275	275	0.571664977	304.6705602	-8847.981122	-8847.987802	76.06642562
276	276	0.577156324	307.59719	-8847.986586	-8847.988105	68.0518661
277	277	0.577319813	307.6843219	-8847.985434	-8847.987067	77.41662463
278	278	0.574872221	306.3798703	-8847.983043	-8847.987345	68.47652586
279	279	0.57379853	305.8076435	-8847.982711	-8847.988259	68.140904
280	280	0.573804071	305.8105964	-8847.983963	-8847.989634	88.88228649
281	281	0.573883516	305.8529369	-8847.979263	-8847.98494	87.9668905
282	282	0.575640032	306.7890774	-8847.980778	-8847.984738	68.3140111
283	283	0.579968495	309.0959447	-8847.98353	-8847.983151	87.98530663
284	284	0.582562196	310.4782654	-8847.988529	-8847.985474	82.08541283
285	285	0.578114875	308.1080523	-8847.987849	-8847.989082	58.9587952
286	286	0.568458729	302.9617808	-8847.977448	-8847.988121	68.08027673
287	287	0.561615193	299.3144974	-8847.967767	-8847.985045	181.0188343
288	288	0.560996761	298.9849026	-8847.967967	-8847.985629	68.78808553
289	289	0.565435937	301.3507745	-8847.975619	-8847.988613	67.42751134
290	290	0.573411202	305.6012159	-8847.982952	-8847.987727	72.79780829
291	291	0.582174321	310.2715466	-8847.991791	-8847.98751	91.36982016
292	292	0.58572884	312.1659377	-8847.997264	-8847.989055	72.95231147
293	293	0.580459459	309.3576055	-8847.991005	-8847.9876	82.77703273
294	294	0.571202168	304.4239047	-8847.981144	-8847.986466	71.92309671
295	295	0.56841422	302.9380594	-8847.980532	-8847.988078	71.63248191
296	296	0.5770051	307.5165946	-8847.989957	-8847.988315	67.5554805
297	297	0.590538317	314.7291628	-8848.004503	-8847.988657	82.29595557
298	298	0.597264363	318.3138295	-8848.011354	-8847.987982	67.56435786
299	299	0.59161202	315.3013965	-8848.007345	-8847.988683	68.2655475
300	300	0.577646721	307.8585485	-8847.995262	-8847.98952	81.8829703
301	301	0.562362751	299.7129111	-8847.977798	-8847.986258	77.74024326
302	302	0.551377921	293.8585131	-8847.968233	-8847.986618	185.5559091
303	303	0.548853009	292.5128537	-8847.96983	-8847.989734	91.78868967
304	304	0.555231741	295.9124177	-8847.976042	-8847.988607	86.30128981
305	305	0.564897114	301.0636072	-8847.987596	-8847.989549	100.5109449
306	306	0.570232665	303.9072049	-8847.993838	-8847.989488	77.57925435
307	307	0.566973157	302.1700404	-8847.99125	-8847.989163	64.46002378
308	308	0.557479995	297.1106316	-8847.98275	-8847.989156	125.5576498
309	309	0.550386799	293.3302912	-8847.977531	-8847.990063	63.60365199
310	310	0.552550308	294.4833401	-8847.97956	-8847.989009	68.83949712
311	311	0.56257554	299.8263176	-8847.987243	-8847.985774	81.84540521
312	312	0.571197814	304.4215843	-8847.999868	-8847.988868	73.19435302
313	313	0.568575864	303.0242079	-8848.001391	-8847.99207	67.45079719
314	314	0.554371933	295.4541807	-8847.984449	-8847.988384	62.72338567
315	315	0.539145358	287.3391315	-8847.967506	-8847.985777	81.36958921
316	316	0.532733167	283.9217353	-8847.967513	-8847.991408	67.45379253
317	317	0.534387745	284.8035476	-8847.969506	-8847.991072	69.15244635
318	318	0.536628104	285.9975538	-8847.970191	-8847.988949	90.96228351
319	319	0.536069197	285.6996827	-8847.969664	-8847.988513	72.1507574
320	320	0.535538169	285.4166697	-8847.969812	-8847.988828	76.67977335
321	321	0.53683781	286.1093171	-8847.971163	-8847.988619	80.78536072
322	322	0.53827345	286.8744457	-8847.973741	-8847.9896	67.44647855
323	323	0.539174731	287.3547861	-8847.975471	-8847.990364	72.51597185
324	324	0.541351143	288.5147116	-8847.976447	-8847.989191	68.14242656
325	325	0.545247405	290.591236	-8847.983293	-8847.992252	95.81459375
326	326	0.547518706	291.8017329	-8847.986578	-8847.993451	86.43248581
327	327	0.544344883	290.1102343	-8847.979015	-8847.989312	90.66862466
328	328	0.535681215	285.4929063	-8847.970297	-8847.989582	86.29036362
329	329	0.526158261	280.4176196	-8847.958992	-8847.988226	72.35766223
330	330	0.522308637	278.3659512	-8847.954945	-8847.988589	64.19699011
331	331	0.527157351	280.9500875	-8847.956991	-8847.986501	86.95855358
332	332	0.535752934	285.5311292	-8847.965675	-8847.987454	73.60064719
333	333	0.540172351	287.8864707	-8847.972487	-8847.990832	63.24654566
334	334	0.539873957	287.7274409	-8847.970854	-8847.990584	77.5614625
335	335	0.542375745	289.0607763	-8847.970535	-8847.988945	64.26746524
336	336	0.551535446	293.9424663	-8847.980628	-8847.991156	64.93307475
337	337	0.562727492	299.9073004	-8847.98997	-8847.990657	74.27121656
338	338	0.568539587	303.0048743	-8847.990885	-8847.987138	77.72785455
339	339	0.567849388	302.6370305	-8847.990458	-8847.98877	91.63726572
340	340	0.566026085	301.6652955	-8847.989488	-8847.990972	67.96281535
341	341	0.565925889	301.6118957	-8847.987474	-8847.990395	82.48653054
342	342	0.563951831	300.559816	-8847.980749	-8847.98697	73.45204443
343	343	0.557836433	297.3005963	-8847.977322	-8847.990976	69.50284484
344	344	0.552997101	294.7214595	-8847.972962	-8847.992781	69.06103884
345	345	0.553423806	294.9488734	-8847.967553	-8847.988307	68.81019276
346	346	0.554141622	295.3314357	-8847.967573	-8847.989012	139.4961575
347	347	0.549797799	293.0163822	-8847.965262	-8847.992483	67.56774895
348	348	0.54432996	290.1022808	-8847.956797	-8847.990964	73.07054519
349	349	0.545866842	290.9213666	-8847.955334	-8847.989509	76.92268495
350	350	0.554271241	295.4005166	-8847.962074	-8847.989469	76.83937151
351	351	0.558974486	297.9071248	-8847.964062	-8847.988433	86.39247579
352	352	0.553036804	294.7426195	-8847.956512	-8847.988519	87.08848816
353	353	0.543513655	289.6672285	-8847.945158	-8847.988402	67.43867426
354	354	0.542559634	289.1587804	-8847.942563	-8847.988528	67.66280989
355	355	0.551686668	294.0230607	-8847.948186	-8847.986876	59.70936989
356	356	0.560942324	298.9558899	-8847.956274	-8847.987633	82.36604236
357	357	0.564079607	300.6279146	-8847.958751	-8847.988923	67.94911017
358	358	0.564227207	300.7065782	-8847.955137	-8847.987107	73.16734315
359	359	0.566393882	301.861314	-8847.956653	-8847.988393	71.93205481
360	360	0.570498633	304.0489534	-8847.960874	-8847.990434	58.57331247
361	361	0.575417512	306.6704848	-8847.962682	-8847.989223	69.61810987
362	362	0.583088376	310.7586949	-8847.96739	-8847.98812	72.80238991
363	363	0.595482611	317.3642392	-8847.980531	-8847.990663	62.81862254
364	364	0.607258507	323.6402386	-8847.987834	-8847.987877	63.27906426
365	365	0.609453166	324.8098887	-8847.986374	-8847.985738	77.26591009
366	366	0.602760715	321.2431265	-8847.984189	-8847.991554	86.58446394
367	367	0.596598896	317.9591668	-8847.973712	-8847.988361	90.33403293
368	368	0.598450823	318.9461567	-8847.974364	-8847.988132	109.1118683
369	369	0.606963914	323.4832344	-8847.984063	-8847.990141	91.84673233
370	370	0.615272044	327.911077	-8847.99062	-8847.989034	86.24655032
371	371	0.617665108	329.1864674	-8847.993025	-8847.989471	77.25525668
372	372	0.613554461	326.9956857	-8847.989316	-8847.99006	109.684588
373	373	0.606195399	323.0736519	-8847.979369	-8847.987441	146.7111949
374	374	0.602616691	321.1663687	-8847.974594	-8847.986023	86.7114071
375	375	0.607568631	323.8055199	-8847.979655	-8847.985732	91.22101522
376	376	0.615606224	328.0891792	-8847.989984	-8847.987419	96.12422543
377	377	0.617068106	328.8682935	-8847.99566	-8847.99079	131.9544607
378	378	0.60974642	324.9661792	-8847.99012	-8847.991495	143.9348717
379	379	0.598955846	319.2153102	-8847.979768	-8847.990666	144.0348453
380	380	0.590953788	314.9505897	-8847.9724	-8847.98989	92.03326299
381	381	0.589192017	314.0116487	-8847.960078	-8847.977804	81.82297492
382	382	0.591725646	315.3619538	-8847.967704	-8847.98125	90.25384602
383	383	0.592338011	315.6883153	-8847.980579	-8847.991738	177.2492506
384	384	0.585925603	312.2708035	-8847.975453	-8847.991135	72.61816511
385	385	0.572790128	305.2702127	-8847.964084	-8847.990953	176.80676
386	386	0.559146698	297.9989058	-8847.950886	-8847.989456	68.16589644
387	387	0.555178163	295.8838633	-8847.947805	-8847.988448	86.21865722
388	388	0.566347924	301.8368205	-8847.961368	-8847.988964	124.1836535
389	389	0.585484845	312.0359003	-8847.980348	-8847.986867	72.60919619
390	390	0.59743548	318.4050269	-8847.994791	-8847.987285	105.2968003
391	391	0.593877091	316.5085726	-8847.996244	-8847.99008	86.2116332
392	392	0.581773197	310.0577664	-8847.986842	-8847.990481	100.0837663
393	393	0.572824748	305.2886634	-8847.979971	-8847.990237	91.52331219
394	394	0.573415172	305.6033316	-8847.980144	-8847.987489	115.6493676
395	395	0.583192282	310.8140718	-8847.993065	-8847.988256	148.6037143
396	396	0.594745779	316.9715427	-8848.00772	-8847.988875	144.1859155
397	397	0.596680121	318.002456	-8848.012977	-8847.989587	73.11078871
398	398	0.585676549	312.1380694	-8848.005401	-8847.990321	101.0515066
399	399	0.570456878	304.0267003	-8847.991039	-8847.988492	86.38100255
400	400	0.563238905	300.1798598	-8847.982448	-8847.984491	78.3903764
401	401	0.567820944	302.6218714	-8847.993908	-8847.988785	78.52241254
402	402	0.578674259	308.4061776	-8848.008876	-8847.990303	82.08481296
403	403	0.584716867	311.6266036	-8848.017684	-8847.990421	87.25750904
404	404	0.576708706	307.3586307	-8848.008209	-8847.986277	78.09317632
405	405	0.556757829	296.7257509	-8847.988417	-8847.983827	83.02142138
406	406	0.540687747	288.1611528	-8847.977983	-8847.987009	100.9158256
407	407	0.54256623	289.1622959	-8847.986698	-8847.991551	120.1854481
408	408	0.559564742	298.2217036	-8848.005773	-8847.991412	106.0554756
409	409	0.57660752	307.3047032	-8848.019827	-8847.986197	72.58959515
410	410	0.579701812	308.9538153	-8848.027689	-8847.988692	72.20278954
411	411	0.565061725	301.151337	-8848.018023	-8847.991396	63.31952693
412	412	0.542292665	289.0164982	-8847.992705	-8847.986687	68.28835051
413	413	0.527295845	281.0238984	-8847.981718	-8847.988719	86.29552657
414	414	0.528413438	281.6195228	-8847.986696	-8847.990788	77.22237586
415	415	0.54222318	288.9794663	-8848.000474	-8847.989092	68.23349469
416	416	0.557311221	297.0206831	-8848.017409	-8847.989334	77.66305681
417	417	0.561405034	299.2024928	-8848.025293	-8847.991539	65.02367028
418	418	0.549580653	292.9006534	-8848.010125	-8847.986651	73.36593381
419	419	0.528947195	281.9039901	-8847.989385	-8847.985116	74.96355717
420	420	0.513277689	273.5528802	-8847.979263	-8847.989418	73.38956935
421	421	0.514829032	274.3796733	-8847.98217	-8847.98973	72.95694164
422	422	0.533433542	284.2950024	-8848.00293	-8847.990999	105.3065633
423	423	0.555350237	295.9755704	-8848.02607	-8847.99142	79.33403044
424	424	0.566095375	301.7022238	-8848.037743	-8847.991558	73.01008593
425	425	0.56170876	299.3643644	-8848.031303	-8847.988706	68.05525924
426	426	0.548036168	292.0775155	-8848.01952	-8847.98982	73.49623969
427	427	0.536047299	285.688012	-8848.00782	-8847.989406	68.56684757
428	428	0.537355549	286.3852478	-8848.01086	-8847.990538	78.29222491
429	429	0.554074058	295.2954274	-8848.027863	-8847.990304	92.11385944
430	430	0.573279745	305.5311554	-8848.048157	-8847.99089	101.0308309
431	431	0.580985681	309.6380573	-8848.052315	-8847.986787	96.33202788
432	432	0.574354381	306.1038858	-8848.044902	-8847.98538	78.31743063
433	433	0.558852974	297.8423646	-8848.035995	-8847.991314	99.75182542